# LAMMPS data file written by OVITO Basic 3.7.11
4608 atoms
1 atom types
0.568703 56.0475 xlo xhi
1.2344 55.3818 ylo yhi
-1.08186 46.1198 zlo zhi

Atoms  # atomic

1 1 12.3172 6.29554 45.7606
2 1 5.37146 8.41999 8.3349
3 1 3.00512 3.64409 8.80783
4 1 15.1146 52.1879 45.7996
5 1 8.00439 1.59987 10.27
6 1 4.29927 6.22964 11.1456
7 1 53.209 51.4442 7.86287
8 1 6.64166 2.30672 0.318244
9 1 6.28687 11.2941 3.40851
10 1 10.9752 6.87319 8.46649
11 1 8.80925 13.0649 4.37758
12 1 12.544 8.73959 12.0844
13 1 51.3999 48.228 44.8875
14 1 1.03298 55.019 39.6591
15 1 8.4378 6.64505 5.58559
16 1 3.1208 52.7942 1.31264
17 1 55.9215 2.35386 1.42343
18 1 10.6612 53.2014 5.65717
19 1 10.7626 10.4621 2.98714
20 1 5.55937 4.54858 39.4008
21 1 9.6756 13.3747 9.06735
22 1 17.9553 49.1135 35.8373
23 1 46.0233 9.21473 42.7778
24 1 11.4873 2.18312 5.34751
25 1 14.1094 7.93835 9.1784
26 1 20.8127 51.3656 8.50211
27 1 14.3273 1.7488 3.31417
28 1 2.61151 49.0789 6.88391
29 1 5.7206 2.3834 14.1878
30 1 11.1816 5.50922 18.4812
31 1 18.1614 46.6145 43.5581
32 1 10.2954 5.4081 3.45549
33 1 11.9292 50.4689 -0.0652157
34 1 19.0737 11.8866 12.9571
35 1 7.87516 6.67667 9.46045
36 1 10.5735 20.6828 6.45845
37 1 44.4387 54.2649 45.9499
38 1 55.8954 3.02422 9.61686
39 1 43.137 3.49522 10.2491
40 1 46.8778 4.79429 2.9232
41 1 53.796 10.2178 10.4975
42 1 9.48697 4.52709 10.5604
43 1 44.6502 10.4781 5.80582
44 1 4.98353 13.6861 4.88206
45 1 55.8952 14.6047 5.53824
46 1 51.1588 6.86858 11.1403
47 1 5.90756 54.4361 8.62648
48 1 54.6134 8.31676 5.87041
49 1 9.33095 51.6793 1.70471
50 1 7.00919 7.16829 23.9522
51 1 53.0143 51.802 12.0697
52 1 14.1619 52.3067 5.24858
53 1 53.4613 49.4024 4.0799
54 1 6.81976 11.7584 10.2097
55 1 6.90914 53.8546 12.8142
56 1 4.09689 51.7363 8.14072
57 1 7.72435 55.2664 44.1643
58 1 9.86782 41.8022 3.99174
59 1 0.831532 5.18305 19.0344
60 1 6.64288 7.68537 14.4801
61 1 8.38395 48.4755 8.47632
62 1 55.2824 4.34177 13.8882
63 1 51.8448 8.00654 15.8085
64 1 5.79497 7.57351 20.9445
65 1 6.12089 11.6203 6.91844
66 1 53.6132 54.9977 1.72097
67 1 6.81496 4.95485 12.8505
68 1 14.0317 10.8885 6.01365
69 1 10.4945 10.1464 14.6068
70 1 19.6514 14.8693 11.9356
71 1 8.49463 9.51034 4.71039
72 1 4.22424 9.18282 18.0181
73 1 9.92938 6.44385 25.6151
74 1 53.4421 16.3625 17.2074
75 1 1.62238 3.16749 16.241
76 1 11.6618 53.9111 9.0162
77 1 7.36744 1.55251 19.0225
78 1 8.68391 52.0356 10.177
79 1 11.6296 54.4113 17.6953
80 1 7.08424 17.4942 23.2197
81 1 8.20462 4.67392 19.9705
82 1 52.829 11.0616 17.3146
83 1 13.5186 6.48168 25.6223
84 1 13.9261 17.398 15.2612
85 1 55.2241 55.267 6.74821
86 1 11.5329 4.68502 21.9035
87 1 0.765123 7.19574 14.3482
88 1 9.4633 7.69579 16.8034
89 1 1.42641 10.3322 19.7578
90 1 52.5648 1.5894 11.9072
91 1 49.3852 4.70427 14.2027
92 1 53.3791 4.62811 19.5088
93 1 54.017 8.46543 19.6207
94 1 54.2457 6.35863 16.7278
95 1 48.4998 5.84682 7.77282
96 1 45.6806 5.56336 5.81581
97 1 9.28544 4.44125 30.5138
98 1 11.8482 6.39701 33.9039
99 1 5.11633 54.4131 24.4459
100 1 2.60349 2.49062 19.7338
101 1 2.26847 7.7394 20.6109
102 1 13.9706 6.52234 22.6297
103 1 2.84227 6.57261 17.4535
104 1 18.405 12.1294 20.7979
105 1 2.75912 10.2026 32.9094
106 1 10.2721 11.9848 21.4941
107 1 7.22723 13.6606 28.7351
108 1 1.98829 4.28476 31.9795
109 1 55.9392 50.3407 22.5413
110 1 54.1337 54.6239 14.5234
111 1 51.1911 7.43689 18.6671
112 1 45.3565 51.8961 18.1237
113 1 52.3561 51.3639 23.8422
114 1 8.13508 10.2273 23.4681
115 1 49.1808 1.59804 22.9397
116 1 43.0421 8.12055 6.86126
117 1 9.10361 10.9779 26.9978
118 1 53.9055 8.06388 30.5294
119 1 44.6612 4.3436 28.5653
120 1 52.2412 49.2708 27.0633
121 1 0.841464 47.3666 34.3927
122 1 1.03504 14.8742 38.4149
123 1 48.6056 10.4094 27.4298
124 1 3.71258 4.84937 24.827
125 1 44.8683 54.9271 27.8612
126 1 10.4461 2.54225 36.2786
127 1 4.57776 11.0772 36.913
128 1 14.7445 13.4849 32.6677
129 1 8.60125 12.1389 32.0845
130 1 6.36641 2.79913 35.888
131 1 4.10213 5.28875 36.0659
132 1 11.6831 15.6745 22.477
133 1 5.62096 8.18482 36.5356
134 1 42.8372 52.8722 19.6195
135 1 53.3686 52.1663 30.8435
136 1 51.3739 54.3634 24.5679
137 1 5.76151 7.63156 29.2445
138 1 51.9666 2.69251 15.0659
139 1 2.46787 9.28922 29.6554
140 1 8.50838 9.4914 29.8384
141 1 9.67466 15.0864 34.8805
142 1 54.8532 5.83249 22.0448
143 1 52.0404 7.39303 22.2322
144 1 49.5771 7.98569 30.8575
145 1 1.12284 5.87332 35.7816
146 1 10.9001 7.98915 30.8687
147 1 50.0744 6.48016 27.9956
148 1 2.89024 47.4796 36.7623
149 1 54.6204 3.3491 33.9803
150 1 6.51068 9.65393 39.931
151 1 53.4513 6.072 40.1816
152 1 55.3876 16.5235 41.0337
153 1 9.69764 8.51003 41.0541
154 1 11.5922 2.20155 39.4515
155 1 52.1382 8.09212 42.5143
156 1 1.6319 11.3404 39.077
157 1 0.817362 49.322 31.6933
158 1 54.0885 6.12939 33.5161
159 1 1.74278 52.9699 29.7865
160 1 2.11798 52.6144 43.4023
161 1 50.3956 11.1505 24.6035
162 1 6.06083 3.62419 42.2269
163 1 48.8635 3.91666 32.6395
164 1 52.3858 16.9111 35.6807
165 1 15.3236 24.8361 36.4336
166 1 1.87394 23.0863 42.4911
167 1 55.1896 13.5756 27.1099
168 1 6.04043 13.5928 43.3458
169 1 11.0196 53.9673 33.2314
170 1 7.52972 15.377 40.965
171 1 2.2448 8.71442 35.8641
172 1 3.49425 6.25921 41.926
173 1 9.79632 50.6273 39.8252
174 1 6.32121 51.3646 40.0289
175 1 8.47741 50.7167 45.9747
176 1 6.26128 53.8218 37.5276
177 1 5.0048 16.8818 5.50647
178 1 10.3652 53.1307 45.8004
179 1 1.93688 5.50729 44.9505
180 1 4.41442 3.36762 45.25
181 1 40.2404 1.82747 39.0605
182 1 45.3843 8.66544 36.4624
183 1 48.2834 7.63294 36.5772
184 1 39.5946 3.33224 36.4098
185 1 7.77456 45.5139 43.4201
186 1 12.742 50.2493 3.79129
187 1 53.7362 6.51233 3.14302
188 1 54.1041 4.12343 37.2315
189 1 54.6689 10.5447 43.4117
190 1 54.1658 4.29839 -0.447884
191 1 48.1452 6.89444 40.1372
192 1 52.9898 6.38229 27.9349
193 1 9.71961 44.705 37.8254
194 1 13.7792 45.1569 6.05925
195 1 3.53298 52.9562 40.3406
196 1 4.05099 54.2164 45.9082
197 1 3.15134 2.02672 1.1883
198 1 12.8896 47.6141 0.262992
199 1 1.45668 52.3242 13.8765
200 1 6.45098 5.55061 2.87301
201 1 4.90918 8.26332 3.92831
202 1 13.8798 4.64183 8.84378
203 1 11.7394 9.91183 -0.726216
204 1 9.68348 3.80421 43.665
205 1 49.2391 52.839 40.0235
206 1 3.30574 2.67742 41.7677
207 1 9.95653 1.68653 -0.51664
208 1 9.12984 4.90998 -0.0249668
209 1 55.3173 7.86408 -0.464984
210 1 4.50701 54.6886 3.02042
211 1 43.6984 8.45874 32.3474
212 1 11.5902 10.9052 43.1199
213 1 54.6855 6.73319 43.7894
214 1 51.7506 5.36163 44.7886
215 1 52.2689 3.27946 1.76333
216 1 54.3194 3.76314 43.1385
217 1 2.41558 14.5737 2.83355
218 1 3.34191 9.07706 6.49256
219 1 18.9528 16.4037 37.5107
220 1 6.51794 27.9272 1.93702
221 1 15.6203 10.4457 8.43541
222 1 10.5282 13.286 40.4504
223 1 46.5317 14.4317 1.60484
224 1 5.47342 6.18909 6.66553
225 1 50.9388 8.77804 38.943
226 1 55.929 10.1745 2.64171
227 1 54.5552 16.1375 8.17377
228 1 5.8729 18.767 8.11881
229 1 3.46504 21.8129 0.730153
230 1 54.4132 18.2108 5.35222
231 1 8.4562 17.1352 7.81207
232 1 11.7072 16.3936 -0.797441
233 1 48.2468 17.0733 1.8946
234 1 50.3356 22.344 7.18784
235 1 53.5071 16.9712 43.8229
236 1 49.183 18.4506 13.6179
237 1 54.7213 22.5484 -0.391314
238 1 8.86075 10.8318 0.597285
239 1 7.59024 19.4729 5.68822
240 1 12.1962 21.0099 9.60942
241 1 5.51932 11.8131 13.7994
242 1 11.1574 15.4551 6.9144
243 1 49.9619 13.0708 2.7333
244 1 0.696973 52.4656 6.80667
245 1 10.4445 24.2361 2.20862
246 1 17.8805 25.9328 4.93633
247 1 5.33234 3.48044 10.3564
248 1 3.10182 12.6275 8.38231
249 1 9.58001 25.5258 45.3297
250 1 13.1254 15.4177 12.542
251 1 8.12806 11.0665 13.2378
252 1 14.9262 11.3292 0.278265
253 1 6.30662 14.9121 1.93862
254 1 52.3311 19.2141 7.8355
255 1 51.9822 15.0338 2.59728
256 1 10.9834 12.122 6.15488
257 1 11.9463 23.8781 5.15384
258 1 2.63945 11.5832 5.21662
259 1 3.42618 10.7601 15.4609
260 1 13.8621 17.3716 5.71449
261 1 12.9181 17.7773 8.47275
262 1 55.8954 22.6039 22.1252
263 1 3.64959 10.3906 10.9639
264 1 49.4175 3.78879 11.0149
265 1 54.9737 4.64805 6.81268
266 1 50.6533 7.87891 5.37331
267 1 44.0273 12.1375 14.3549
268 1 52.4161 1.92309 4.71129
269 1 15.5428 14.7326 7.65274
270 1 19.7443 19.2197 5.3512
271 1 6.63596 9.20325 26.1618
272 1 17.6452 15.0933 5.27898
273 1 42.2649 5.23527 13.2616
274 1 48.6149 18.2189 6.49475
275 1 53.1573 4.29644 10.8564
276 1 6.11992 12.4437 18.3242
277 1 6.26871 6.30922 17.556
278 1 9.86592 10.8528 17.476
279 1 20.6894 11.9421 17.3006
280 1 13.9844 21.6457 12.2171
281 1 53.6669 7.62433 8.92885
282 1 14.1434 20.8554 6.63406
283 1 48.1284 10.6371 7.41032
284 1 55.7486 15.4685 19.6224
285 1 48.7803 9.43761 22.2968
286 1 8.10461 4.27736 16.2164
287 1 53.1108 6.55586 24.9315
288 1 10.0246 20.217 12.4886
289 1 15.3554 16.4355 10.6838
290 1 10.473 22.0933 14.8976
291 1 3.00037 18.9762 8.80355
292 1 7.17607 17.8373 13.855
293 1 55.968 12.7312 11.1915
294 1 4.63725 17.8184 16.1758
295 1 5.51354 14.1528 22.3936
296 1 51.8249 16.7509 9.34249
297 1 8.76276 13.7308 17.2313
298 1 14.4622 17.8161 18.5207
299 1 9.6844 18.4442 21.2449
300 1 13.4681 18.3203 22.3828
301 1 3.23502 15.4332 28.1018
302 1 14.3256 14.511 17.5479
303 1 39.0139 53.2611 26.4868
304 1 52.1491 52.8834 27.5817
305 1 3.94056 9.4293 41.5105
306 1 11.3989 17.4624 28.4003
307 1 48.6355 9.85655 17.9927
308 1 3.74419 8.39298 23.3052
309 1 7.24082 19.1742 19.0225
310 1 4.27244 19.3282 40.1883
311 1 13.4226 21.193 17.9544
312 1 10.7153 29.1455 8.61205
313 1 48.4379 7.54594 14.9421
314 1 0.845533 10.0118 12.8795
315 1 18.447 21.0121 12.5903
316 1 53.1626 23.866 24.7981
317 1 5.30615 13.1608 31.0358
318 1 22.3587 18.5134 24.0424
319 1 13.4218 10.2555 34.384
320 1 7.08154 6.92341 41.833
321 1 1.89883 13.2907 32.9654
322 1 18.3745 25.7974 24.2811
323 1 51.9211 9.85679 27.7285
324 1 50.7092 15.6386 12.8566
325 1 50.5691 4.73473 21.986
326 1 4.98626 11.3433 24.4339
327 1 54.4766 9.4502 34.7811
328 1 10.5002 17.3609 24.962
329 1 8.74166 14.5649 22.829
330 1 11.1573 22.4625 30.1192
331 1 0.681168 11.9043 25.1156
332 1 14.1544 9.13918 40.172
333 1 3.36849 7.78538 26.4775
334 1 1.76455 18.0174 18.2727
335 1 55.1186 9.54847 27.2279
336 1 2.89068 13.0029 18.6702
337 1 2.01154 8.54306 44.3219
338 1 14.4679 13.432 35.3922
339 1 9.75559 15.5789 19.4375
340 1 19.7449 19.5443 32.3146
341 1 7.13452 9.18934 33.3608
342 1 6.88339 12.853 39.2344
343 1 49.5054 12.1795 37.4343
344 1 13.7051 13.7616 30.1098
345 1 11.0319 16.604 37.6086
346 1 3.39788 16.6061 40.4508
347 1 53.4629 16.4478 26.6268
348 1 3.68406 17.25 36.9982
349 1 3.1429 19.6484 43.0749
350 1 13.6443 13.233 43.8875
351 1 10.5078 20.638 41.3549
352 1 13.9513 18.3504 26.0452
353 1 47.3542 13.3407 28.2605
354 1 54.2465 19.4828 34.6381
355 1 4.182 13.4093 40.8778
356 1 12.6652 16.1966 34.8328
357 1 52.9221 7.09005 36.6978
358 1 17.909 19.5975 34.5975
359 1 3.18677 8.62096 0.42639
360 1 7.45535 6.39071 38.7919
361 1 1.48744 17.61 44.457
362 1 10.5968 17.112 40.4109
363 1 53.5697 10.2579 39.6113
364 1 3.61862 7.97249 38.7334
365 1 11.0819 24.8275 42.0525
366 1 3.75115 15.6275 31.4825
367 1 52.9704 9.2023 45.621
368 1 2.25612 14.7859 43.7746
369 1 3.41703 15.1713 35.0502
370 1 5.34529 19.8105 36.3882
371 1 14.0509 24.5306 40.5894
372 1 16.9868 17.2331 32.4134
373 1 5.28752 9.98094 31.2097
374 1 1.48129 20.0348 28.136
375 1 17.6961 16.9919 0.274497
376 1 9.79624 19.5782 30.4102
377 1 1.05171 5.08554 40.9462
378 1 19.5172 7.2185 1.05902
379 1 6.42288 15.2255 -0.85177
380 1 6.01491 12.0196 -0.164772
381 1 4.35194 5.18965 0.692764
382 1 7.45676 14.1006 7.13252
383 1 51.4595 11.4629 42.0542
384 1 55.3976 15.6609 -0.846052
385 1 54.2451 13.8601 43.2934
386 1 7.78897 3.38485 3.93646
387 1 55.6819 10.9383 6.4317
388 1 6.14434 8.61028 0.917174
389 1 7.81063 24.5114 0.766218
390 1 4.2102 19.6498 3.95149
391 1 14.4985 25.7217 43.5258
392 1 51.7118 15.0864 45.8344
393 1 1.89552 21.666 45.3465
394 1 4.22417 17.7971 -0.410967
395 1 1.64777 11.9844 42.0026
396 1 1.40795 11.4787 -0.66993
397 1 16.6778 17.9987 43.0931
398 1 15.6028 12.3127 3.49227
399 1 1.46999 18.693 0.524179
400 1 15.1704 15.7813 45.4823
401 1 14.8543 22.6733 45.7996
402 1 3.73293 25.1487 45.4067
403 1 5.43709 15.7828 8.72749
404 1 13.789 14.394 4.91446
405 1 7.38962 22.0158 3.45967
406 1 8.29656 36.3699 40.6365
407 1 15.963 20.5188 1.36479
408 1 6.25626 24.7948 7.15533
409 1 54.1435 27.1257 42.7946
410 1 26.8977 19.1277 -0.0678184
411 1 5.61334 36.6199 39.3265
412 1 53.182 23.2899 2.82344
413 1 47.9228 15.2513 4.25761
414 1 53.826 26.8725 3.22719
415 1 5.39328 33.7253 5.62474
416 1 2.28127 30.7975 -0.0399586
417 1 42.8985 31.9735 39.2226
418 1 13.4877 25.6476 3.31548
419 1 14.7304 18.3886 -0.541994
420 1 18.9026 15.5531 44.4513
421 1 16.6024 20.235 4.63151
422 1 11.1485 26.9481 0.174183
423 1 55.2744 19.3085 8.48208
424 1 15.1696 23.1798 5.02705
425 1 2.09622 17.9252 5.77202
426 1 8.1674 19.279 -0.959568
427 1 5.39976 31.9113 9.57524
428 1 2.28944 35.2408 3.87326
429 1 10.1671 30.2075 5.14652
430 1 13.8612 25.7434 0.135239
431 1 9.01778 32.9636 -0.0957871
432 1 14.3843 9.24957 3.53851
433 1 55.6826 16.7623 3.09138
434 1 4.04506 13.6991 10.9067
435 1 17.4629 12.2017 6.28416
436 1 12.9675 28.4749 2.21641
437 1 4.72259 37.3334 6.62143
438 1 8.57704 23.2058 6.11516
439 1 17.0224 24.5195 8.36444
440 1 16.7847 17.1784 3.67541
441 1 7.91943 8.95637 19.6106
442 1 6.94586 20.6082 12.1139
443 1 13.4235 20.5596 14.8061
444 1 18.8042 10.7979 9.53989
445 1 7.63753 29.2147 8.401
446 1 15.6976 19.0253 8.71587
447 1 10.7578 15.9056 10.2887
448 1 16.0018 28.6582 4.58202
449 1 6.60344 30.3195 11.9457
450 1 4.197 15.828 18.8889
451 1 13.6718 24.3789 14.1348
452 1 20.0779 33.405 19.3174
453 1 13.2882 20.0609 3.57434
454 1 17.5962 17.3312 7.62965
455 1 14.066 26.5599 6.83441
456 1 0.942742 22.4219 25.6693
457 1 9.84521 26.7657 3.43158
458 1 14.9839 31.1003 2.42424
459 1 10.6045 26.3551 6.47041
460 1 15.7991 19.178 13.045
461 1 18.6103 25.7948 10.8134
462 1 7.92443 24.1371 12.6297
463 1 15.7246 27.4258 23.8626
464 1 9.88233 16.9762 13.2582
465 1 16.138 31.7458 5.77084
466 1 8.08004 27.3458 6.21811
467 1 4.07721 20.5749 15.1359
468 1 12.2739 26.6859 9.52374
469 1 21.4886 32.5876 16.1989
470 1 21.7586 9.75862 1.80367
471 1 10.0646 13.981 14.1245
472 1 14.469 35.135 19.1462
473 1 17.4456 17.2722 17.4165
474 1 10.3205 23.3636 8.45254
475 1 9.69619 19.344 9.43074
476 1 51.9102 18.056 20.6307
477 1 7.58579 14.2992 12.1589
478 1 6.73263 15.4305 19.6597
479 1 55.0099 18.4983 21.0894
480 1 53.1327 22.0571 17.4507
481 1 4.45816 15.8552 13.0531
482 1 18.1839 17.3724 14.2254
483 1 10.2857 17.5881 32.8345
484 1 18.9428 32.5272 29.8029
485 1 12.1886 24.4531 21.0389
486 1 2.76104 14.4614 25.1601
487 1 5.4423 14.7171 26.3189
488 1 51.4023 18.393 24.668
489 1 6.50358 24.2662 21.6829
490 1 14.6191 24.6421 24.5504
491 1 4.46393 21.5324 23.9859
492 1 7.67999 17.5221 16.739
493 1 16.6 17.0556 23.2363
494 1 7.74578 22.5616 31.304
495 1 12.3065 35.422 30.7302
496 1 4.3112 20.8542 27.1063
497 1 1.45508 21.1449 32.8696
498 1 8.0453 20.9227 24.5774
499 1 6.74918 30.4063 15.0138
500 1 10.617 24.2288 23.7062
501 1 3.89495 28.8027 13.0972
502 1 18.655 23.1141 21.8122
503 1 3.00359 18.5181 31.4017
504 1 10.1543 21.8899 26.8805
505 1 12.5589 27.4308 23.9482
506 1 11.957 24.2146 26.4714
507 1 10.3892 22.4666 33.5621
508 1 11.4187 18.0818 18.9039
509 1 53.3535 15.6685 38.256
510 1 1.40168 17.3582 26.3906
511 1 4.77658 17.6297 28.8372
512 1 15.6386 23.4005 16.2222
513 1 47.4806 25.0486 17.3558
514 1 12.8835 19.8361 31.7977
515 1 3.15779 24.5538 23.8294
516 1 20.9128 27.8102 20.1193
517 1 49.2137 12.5482 21.8432
518 1 52.0805 26.7408 27.4323
519 1 1.55005 27.5696 33.3029
520 1 4.74113 27.4956 32.3122
521 1 3.50118 30.3116 32.9796
522 1 55.5458 25.1472 27.2396
523 1 7.39901 16.3682 30.1869
524 1 21.0403 9.60154 30.8343
525 1 7.98116 17.6951 36.0336
526 1 15.2665 21.1499 22.2991
527 1 12.0798 22.4639 38.6193
528 1 12.207 20.992 20.8171
529 1 52.8836 13.2812 11.811
530 1 2.24748 16.1559 22.7164
531 1 10.758 9.87949 33.2241
532 1 8.84289 26.865 25.3174
533 1 9.52249 29.98 30.4486
534 1 1.16241 16.4114 32.7188
535 1 4.78495 21.4626 33.6944
536 1 4.97085 34.4878 22.4419
537 1 13.8742 27.45 27.0953
538 1 0.980426 11.4675 36.3065
539 1 53.155 16.5249 32.3781
540 1 7.28279 16.6946 26.898
541 1 3.99798 21.777 30.2312
542 1 7.36384 23.9642 25.0467
543 1 1.51998 35.779 26.9867
544 1 5.79509 25.2462 29.2859
545 1 11.8342 28.4694 41.3676
546 1 19.8379 16.1487 34.2969
547 1 2.04795 27.6088 36.023
548 1 14.5594 30.606 25.484
549 1 4.87025 16.6475 43.6571
550 1 7.15746 20.9363 40.3285
551 1 16.9446 23.3377 42.7239
552 1 7.45069 23.3991 34.755
553 1 55.4826 22.4418 35.1953
554 1 13.0742 17.2682 1.93707
555 1 7.40378 15.0311 33.0989
556 1 5.18347 26.4785 25.9159
557 1 13.118 33.128 0.285781
558 1 4.06422 28.198 -0.294739
559 1 2.83696 14.4003 -0.141713
560 1 50.1896 28.3321 25.4813
561 1 2.7662 21.4438 36.734
562 1 53.9294 22.5694 28.2387
563 1 6.98632 33.2043 39.5156
564 1 3.86091 33.3314 38.3394
565 1 11.777 19.6265 34.7572
566 1 22.0622 11.1248 41.7393
567 1 8.92603 22.2193 43.1419
568 1 19.9381 26.753 35.5328
569 1 6.92829 25.5383 3.93655
570 1 6.20099 23.742 44.8858
571 1 3.47238 23.0802 39.4985
572 1 53.5494 27.6098 6.7076
573 1 9.38175 21.677 36.7947
574 1 3.79536 26.1452 38.4336
575 1 55.3719 33.0503 45.3788
576 1 9.70473 25.3605 36.5853
577 1 5.7774 28.1179 35.1581
578 1 12.6764 17.9588 43.5529
579 1 6.57135 31.2355 44.3793
580 1 53.7547 12.6557 45.7472
581 1 47.744 20.3562 0.741903
582 1 55.0974 30.5608 43.7611
583 1 1.03402 28.2571 4.6502
584 1 4.31875 22.7595 3.75269
585 1 48.9795 19.2965 40.3878
586 1 15.0119 22.4384 38.7384
587 1 16.5322 29.5521 40.305
588 1 15.4976 35.9192 0.516541
589 1 54.2591 20.4024 1.80256
590 1 55.5332 24.6263 44.3183
591 1 6.37354 27.3557 -0.993666
592 1 11.3323 38.0692 7.30491
593 1 1.18419 20.8026 3.44208
594 1 19.708 29.7181 5.91578
595 1 16.6531 26.8662 45.1179
596 1 16.545 31.522 -0.438817
597 1 2.24451 40.8075 35.2803
598 1 17.1886 50.5052 4.13787
599 1 52.5617 21.3218 40.9348
600 1 0.988536 36.6494 1.54556
601 1 5.06384 37.8629 1.89879
602 1 4.11909 35.7006 35.7672
603 1 3.8626 41.173 38.099
604 1 54.3615 42.9443 6.79553
605 1 2.97839 34.1102 -0.417315
606 1 13.1412 41.8841 30.6468
607 1 14.4496 29.8738 42.8486
608 1 5.77379 30.8257 0.493862
609 1 7.74649 39.3284 43.0867
610 1 11.0507 35.0842 42.2129
611 1 6.47489 21.845 0.411533
612 1 17.5745 21.031 40.3942
613 1 17.9456 34.223 1.4094
614 1 8.08656 36.7542 44.2156
615 1 15.7088 37.7363 3.7524
616 1 11.2681 44.6202 34.3415
617 1 4.26817 29.258 3.59418
618 1 15.8199 23.2494 1.94201
619 1 3.83615 31.8831 2.81171
620 1 18.0459 39.6394 3.47933
621 1 17.4969 35.1787 4.07194
622 1 17.0514 26.9493 41.9796
623 1 17.8021 28.8515 0.657505
624 1 4.00701 31.2262 6.94795
625 1 52.5714 36.9609 10.196
626 1 11.1172 32.7656 11.8952
627 1 8.3185 30.8876 41.1446
628 1 6.41068 39.547 39.6619
629 1 11.8197 31.409 41.072
630 1 17.4971 40.672 46.0773
631 1 9.57405 34.8666 2.37416
632 1 17.7105 29.9536 43.3697
633 1 14.2244 35.8053 44.7219
634 1 10.598 37.851 -0.633353
635 1 10.9522 32.047 2.23496
636 1 22.9926 33.5225 6.33947
637 1 13.8058 32.816 44.1537
638 1 14.9049 27.8114 20.2756
639 1 54.5472 34.7706 5.37921
640 1 14.7576 25.0973 11.1992
641 1 11.9708 35.9701 4.0651
642 1 12.9319 28.6899 5.54685
643 1 13.5773 29.6529 18.435
644 1 12.6168 36.8203 1.27315
645 1 17.5919 27.87 13.7338
646 1 13.0962 31.9766 5.09518
647 1 18.019 34.8936 17.2779
648 1 12.9597 30.5222 15.269
649 1 7.2232 27.1858 12.504
650 1 6.34213 38.8412 8.68009
651 1 15.5179 32.0968 10.5033
652 1 7.73466 35.6927 8.50939
653 1 8.63528 32.6506 9.64021
654 1 23.0718 37.5725 0.881028
655 1 9.05011 35.4772 12.1053
656 1 29.4279 38.7017 11.0733
657 1 17.2667 39.5587 11.4619
658 1 14.1705 38.6897 12.7261
659 1 13.3506 38.5902 45.2368
660 1 53.889 29.8057 9.64029
661 1 17.613 27.7247 7.49656
662 1 17.701 34.8344 10.1019
663 1 14.9098 25.7559 18.3744
664 1 10.1239 29.2215 15.0703
665 1 9.18517 24.9707 16.1391
666 1 5.4857 21.514 6.67166
667 1 7.12837 29.902 18.451
668 1 8.91495 31.2998 27.1639
669 1 19.8374 33.1211 5.8845
670 1 10.7268 23.513 11.5287
671 1 11.0254 29.1026 26.0226
672 1 7.06514 22.0401 28.3978
673 1 20.4572 38.3033 24.5898
674 1 7.58102 33.0231 3.71223
675 1 3.45625 25.7186 13.9476
676 1 15.8697 30.2775 12.7335
677 1 2.78404 31.9524 12.1351
678 1 11.4167 36.0935 17.811
679 1 12.6046 30.445 11.3693
680 1 1.79179 32.8425 17.9119
681 1 18.4396 37.6232 0.993658
682 1 14.143 44.6306 16.7701
683 1 6.73666 27.5083 16.0326
684 1 2.68432 28.9362 19.1404
685 1 8.87915 33.1103 21.8966
686 1 11.6119 20.5041 23.816
687 1 12.6731 32.3842 18.0958
688 1 14.0478 29.0751 30.3564
689 1 11.9496 27.6088 20.7295
690 1 53.0035 24.9976 20.5945
691 1 7.74809 33.9935 16.0643
692 1 6.26438 32.4628 20.3
693 1 8.1502 38.8295 24.6647
694 1 9.17669 27.5727 21.7185
695 1 17.6533 32.7472 13.4827
696 1 11.9037 33.9194 20.9925
697 1 8.61368 36.4047 14.721
698 1 23.2811 46.3846 23.7621
699 1 3.32529 30.5332 24.6775
700 1 12.4736 35.4793 12.8651
701 1 1.57524 23.3646 15.5532
702 1 53.1262 30.3615 24.531
703 1 10.6176 26.1528 13.3327
704 1 11.15 37.7658 20.933
705 1 3.85152 23.1069 20.5233
706 1 16.1903 29.7749 15.8103
707 1 8.12019 46.7173 21.133
708 1 2.91526 31.1953 28.07
709 1 7.29293 39.7411 14.5946
710 1 10.8523 41.6637 24.1443
711 1 13.0557 19.3439 37.2911
712 1 16.2703 34.2211 28.0173
713 1 10.5706 32.7104 29.2954
714 1 9.69062 21.527 18.1296
715 1 6.10418 29.0975 26.1735
716 1 10.9897 37.9077 33.3624
717 1 10.6816 39.1495 17.9546
718 1 8.00413 30.2407 33.5923
719 1 6.30865 30.1202 31.189
720 1 11.2266 31.9633 24.8283
721 1 14.6466 33.1502 22.5407
722 1 2.75149 44.0464 26.3425
723 1 47.5971 45.5042 27.6312
724 1 3.93124 35.0059 29.4771
725 1 1.23468 33.5117 29.64
726 1 8.04015 19.2056 27.7868
727 1 10.721 41.6164 37.1221
728 1 6.45278 35.7017 25.32
729 1 19.6388 34.5449 14.6227
730 1 13.2196 31.9111 31.7359
731 1 2.32161 27.743 26.1171
732 1 53.4492 43.6918 23.1339
733 1 52.1771 50.047 36.7173
734 1 8.21836 36.2397 34.1782
735 1 6.09982 31.9783 24.0199
736 1 17.4854 24.9486 39.8308
737 1 6.34392 26.907 23.2225
738 1 9.32714 23.7416 39.5836
739 1 3.53713 24.0607 17.6021
740 1 8.68835 24.7295 28.0382
741 1 17.7198 39.8032 31.4921
742 1 20.5947 23.454 40.8432
743 1 6.02669 36.7314 31.2693
744 1 10.5405 36.0816 23.7311
745 1 8.51933 36.8195 27.6737
746 1 11.7841 25.8721 39.1201
747 1 13.9381 34.7176 37.7655
748 1 20.3517 34.7305 32.7801
749 1 5.62596 29.2426 21.4367
750 1 4.62007 27.9562 29.2054
751 1 2.53823 35.854 32.7169
752 1 16.1205 37.2685 35.8422
753 1 8.40094 42.6133 33.8098
754 1 7.69643 32.9839 31.2782
755 1 9.03008 42.0202 41.0266
756 1 18.9066 37.8288 33.5629
757 1 18.7279 38.6655 39.7509
758 1 4.01999 43.6819 31.8877
759 1 8.76006 29.7969 23.7685
760 1 5.79405 45.6368 25.764
761 1 10.9491 31.6061 44.0989
762 1 20.1825 21.7704 38.3298
763 1 8.51977 26.6754 30.9593
764 1 2.26819 33.0947 34.5082
765 1 3.30529 30.5588 36.5831
766 1 11.2398 38.1405 27.9918
767 1 10.4131 33.919 32.5019
768 1 7.91941 26.1311 42.9872
769 1 19.1773 20.4955 42.9521
770 1 5.1328 44.879 37.8707
771 1 22.3587 29.4132 41.4468
772 1 13.9705 30.7928 39.4569
773 1 24.9021 36.9147 40.2202
774 1 49.7618 15.8917 33.3826
775 1 4.07068 24.0666 35.4095
776 1 12.603 26.6448 35.4734
777 1 8.96074 32.692 35.7973
778 1 11.894 28.5706 37.8233
779 1 6.85912 26.1697 37.6458
780 1 10.1613 34.0356 39.3548
781 1 12.1224 32.3586 37.4851
782 1 8.18605 42.2693 44.5909
783 1 10.2228 47.3655 32.1272
784 1 47.8455 37.4759 32.4584
785 1 6.91359 45.1389 35.2268
786 1 8.79397 29.374 -0.884657
787 1 22.5881 20.8848 6.34502
788 1 15.2145 20.6211 42.2814
789 1 55.3252 30.3098 34.9885
790 1 12.7338 22.1392 42.8115
791 1 5.56739 27.8986 40.4097
792 1 8.65071 16.0881 44.897
793 1 47.7694 27.9853 41.7569
794 1 4.64464 24.9437 1.36348
795 1 8.47093 27.535 39.932
796 1 11.61 30.362 -0.334753
797 1 16.6718 19.3882 37.3449
798 1 16.7868 32.6525 41.7338
799 1 53.8752 20.2228 37.9559
800 1 0.629921 31.874 37.7715
801 1 1.10727 37.9518 43.4488
802 1 6.03992 28.5756 43.2383
803 1 6.00114 30.1954 37.6827
804 1 2.80573 39.6584 41.0079
805 1 52.9161 28.8202 36.9036
806 1 18.5543 44.039 2.82987
807 1 19.8052 39.0827 42.1943
808 1 9.45546 28.4887 35.8259
809 1 9.42993 36.9783 37.3531
810 1 51.3121 30.5256 33.6004
811 1 4.63846 37.5568 42.7968
812 1 7.16898 44.261 40.585
813 1 13.5244 44.5067 43.5188
814 1 13.6274 37.6547 42.1458
815 1 11.135 48.4832 38.1082
816 1 14.45 47.5379 43.3298
817 1 55.451 29.864 40.1881
818 1 16.3505 42.3776 1.25151
819 1 6.24992 45.0888 -0.0886375
820 1 4.15116 51.7334 4.69122
821 1 55.1153 48.8133 7.17203
822 1 10.4934 48.3082 43.9403
823 1 11.5026 43.9865 1.88078
824 1 3.18696 43.3102 6.63925
825 1 12.37 40.7834 41.5608
826 1 16.6687 45.1351 6.46867
827 1 1.40079 45.4799 41.7397
828 1 55.2616 47.0767 45.891
829 1 48.7875 36.791 45.5294
830 1 3.21047 42.0587 3.28469
831 1 24.04 35.1078 3.20864
832 1 8.30868 39.7073 6.0634
833 1 25.8035 38.1475 -0.621382
834 1 11.5745 47.2356 8.63418
835 1 16.6629 36.2211 41.7335
836 1 6.72763 42.0091 1.25316
837 1 3.49941 40.2478 16.8421
838 1 5.9683 40.146 3.55241
839 1 4.59436 40.2514 6.38778
840 1 7.8208 36.8469 0.665864
841 1 10.553 33.7918 6.0035
842 1 12.3759 46.9153 3.46649
843 1 0.666735 40.1512 9.88167
844 1 3.05109 43.3889 12.3966
845 1 5.91884 49.0361 5.48947
846 1 6.76294 42.4558 7.36489
847 1 41.4623 49.6164 10.9065
848 1 49.2725 49.4026 42.989
849 1 1.13967 46.1111 8.23812
850 1 50.8549 42.6961 43.3202
851 1 11.2738 40.6288 44.9127
852 1 20.8877 34.6214 9.0736
853 1 19.2167 44.7565 12.6488
854 1 15.3933 50.3631 11.654
855 1 14.0809 51.943 15.3763
856 1 9.1253 49.5487 23.2483
857 1 14.1734 34.5224 9.96493
858 1 12.3936 44.3198 9.48332
859 1 11.3414 41.3511 10.816
860 1 5.7842 42.2971 18.2078
861 1 1.07589 43.0755 9.17195
862 1 4.90315 46.7884 20.6635
863 1 47.9428 41.0179 12.5438
864 1 10.4475 38.4258 13.1157
865 1 2.23129 34.5474 6.82244
866 1 14.2885 40.7493 10.5156
867 1 8.95445 41.655 17.2446
868 1 53.4647 40.6901 5.03923
869 1 9.04112 35.0157 19.1837
870 1 2.10742 43.4977 17.1957
871 1 13.6675 35.4135 6.54083
872 1 10.9767 35.2132 9.1014
873 1 9.1362 42.1555 13.3446
874 1 11.6193 38.5518 24.731
875 1 53.8612 27.8189 20.9596
876 1 13.927 53.8704 20.1252
877 1 13.2193 43.624 13.2158
878 1 16.9669 35.2043 20.5298
879 1 4.99246 53.765 16.4173
880 1 10.3142 28.8463 17.6715
881 1 1.47199 48.0988 25.0058
882 1 13.9896 38.2096 17.7699
883 1 10.2488 49.962 16.7265
884 1 7.76361 47.6202 16.7118
885 1 8.2826 1.49047 24.5432
886 1 12.034 47.7028 23.2485
887 1 5.39364 42.4458 15.1596
888 1 1.57213 47.602 20.945
889 1 50.6516 54.0513 9.7115
890 1 6.01953 33.6805 12.4399
891 1 9.57741 32.1826 17.8355
892 1 16.9512 41.4131 18.3612
893 1 8.0241 39.2454 19.3212
894 1 10.9188 44.098 15.7893
895 1 14.7825 43.5101 19.9452
896 1 19.5867 52.6387 16.8853
897 1 52.796 43.5023 29.5244
898 1 11.5613 45.2902 25.5754
899 1 52.9401 49.0669 30.2391
900 1 15.3264 41.3486 14.5266
901 1 8.15277 54.3487 22.119
902 1 7.20735 48.8524 27.3833
903 1 6.45701 44.431 22.3181
904 1 7.8097 42.8857 20.3763
905 1 52.963 47.3431 34.4663
906 1 15.9945 50.8205 17.4839
907 1 3.15517 46.1013 23.3351
908 1 4.50782 37.7936 22.1206
909 1 54.5761 4.04888 30.2618
910 1 52.1463 46.2167 30.6256
911 1 6.7749 51.3651 22.0936
912 1 16.8118 42.784 22.2541
913 1 12.1436 8.84935 27.7732
914 1 8.99743 3.442 27.3163
915 1 9.38811 40.8022 30.1229
916 1 10.8775 9.20277 24.7659
917 1 51.5389 40.5419 27.8902
918 1 1.12875 49.5679 15.7131
919 1 2.73601 2.09038 23.3299
920 1 13.8236 40.3538 20.623
921 1 51.8814 41.6685 32.4293
922 1 4.9127 51.24 27.1413
923 1 10.1431 49.1863 19.8878
924 1 55.2246 46.2756 18.2755
925 1 48.8657 47.8744 25.8571
926 1 26.1843 47.5914 21.2111
927 1 49.66 44.4068 31.7857
928 1 51.2309 45.9446 27.6788
929 1 6.40839 41.6845 31.2712
930 1 54.8625 54.288 25.3007
931 1 8.72996 44.7464 27.194
932 1 13.7534 44.1225 32.6178
933 1 13.9835 50.4285 30.9689
934 1 12.4728 30.0809 28.3192
935 1 16.2945 39.7674 21.8784
936 1 15.2497 46.4962 34.792
937 1 7.22264 34.1809 28.3644
938 1 14.2593 43.5355 26.2776
939 1 10.3971 48.5248 26.181
940 1 5.91048 34.2172 33.495
941 1 52.5527 43.3332 26.4355
942 1 7.46058 42.5165 37.3967
943 1 55.3368 46.4633 31.5035
944 1 12.8855 47.0606 28.1048
945 1 54.6317 45.8274 27.6512
946 1 55.8104 43.8408 30.3771
947 1 50.039 3.04589 26.8345
948 1 48.1901 50.6328 31.282
949 1 8.60872 39.7061 36.1181
950 1 7.22195 39.2668 28.4936
951 1 14.5978 44.8105 29.0264
952 1 14.8388 34.4517 30.6076
953 1 4.61865 38.6706 33.1676
954 1 18.9244 38.635 36.7259
955 1 12.3663 38.6165 30.5229
956 1 15.9263 36.9383 32.1695
957 1 2.19757 43.7779 36.4655
958 1 51.2887 38.3068 33.1645
959 1 9.32421 36.1092 30.7676
960 1 19.8896 40.9322 34.3397
961 1 49.1412 49.5997 -0.46587
962 1 3.07768 45.4819 29.0554
963 1 7.34632 45.5722 32.0427
964 1 11.2527 40.9993 33.4475
965 1 12.815 48.1599 34.8265
966 1 7.49803 49.8 30.2426
967 1 55.9939 35.9396 30.4394
968 1 4.46687 37.1789 27.502
969 1 4.24802 50.3567 42.1504
970 1 8.72709 10.0041 37.8551
971 1 21.6678 40.3723 29.3275
972 1 17.0348 33.7372 33.0218
973 1 9.28455 47.0863 29.3599